ITEM: TIMESTEP
1100000
ITEM: NUMBER OF ATOMS
648
ITEM: BOX BOUNDS xy xz yz pp pp pp
-0.0160071 21.9081 -0.0628648
0.0808182 21.7015 0.560077
0.312262 21.0826 0.38745
ITEM: ATOMS id type xs ys zs
29 1 0.136001 0.0899464 0.134153
418 2 0.186028 0.311576 0.142769
259 2 0.0226049 0.301179 0.0225613
118 1 0.226826 0.0935918 0.244782
432 2 0.0856762 0.134922 0.178187
318 2 0.185228 0.0757915 0.189542
289 2 0.0507749 0.212621 0.104504
482 2 0.236366 0.272739 0.0246396
580 2 0.0988055 0.287369 0.37807
174 1 0.196641 0.325517 0.0664282
62 1 0.178487 0.0151598 0.378547
79 1 0.0290006 0.186434 0.172451
602 2 0.234124 0.309202 0.24755
248 2 0.185764 0.0635922 0.440126
530 2 0.0297074 0.19507 0.354772
386 2 0.00640131 0.155078 0.0132588
595 2 0.0500262 0.214222 0.473038
198 1 0.202333 0.135379 0.446572
373 2 0.151229 0.173913 0.417137
434 2 0.101781 0.0397978 0.0977984
27 1 0.0891438 0.212575 0.403761
431 2 0.169896 0.119082 0.0763943
359 2 0.182812 0.0613293 0.315177
43 1 0.224576 0.0905053 0.0318754
2 1 0.0390953 0.229625 0.0270027
133 1 0.03977 0.00301912 0.0790272
634 2 0.0962012 0.325908 0.225751
357 2 0.0179597 0.224623 0.240593
309 2 0.243322 0.178052 0.242709
181 1 0.0626561 0.197815 0.5473
34 1 0.201229 0.209551 0.576993
485 2 0.0643167 0.00279895 0.571667
523 2 0.132004 0.218883 0.56944
41 1 0.028637 0.0589903 0.600203
618 2 0.155875 0.110373 0.74042
370 2 0.00716969 0.0532547 0.67781
554 2 0.0689848 0.121231 0.57117
339 2 0.0625937 0.027185 0.785027
235 2 0.185136 0.0500321 0.974951
138 1 0.213338 0.162453 0.720577
356 2 0.149826 0.13299 0.915401
441 2 0.166146 0.0366637 0.85708
371 2 0.222503 0.233372 0.757479
63 1 0.174226 0.281432 0.785993
453 2 0.0960806 0.214746 0.976335
591 2 0.135168 0.300475 0.712661
36 1 0.137537 0.0412307 0.784422
445 2 0.152964 0.240591 0.85008
6 1 0.140738 0.0591392 0.922774
40 1 0.11249 0.192335 0.90537
448 2 0.0429507 0.197335 0.866479
298 2 0.0585376 0.0647861 0.939349
573 2 0.207719 0.187772 0.65097
219 2 0.208248 0.149524 0.521076
194 1 0.00359605 0.0149568 0.742342
498 2 0.0107911 0.246114 0.582385
518 2 0.00989727 0.292255 0.689135
566 2 0.247697 0.26598 0.540654
185 1 0.0750959 0.332377 0.684338
424 2 0.169823 0.411455 0.21561
72 1 0.148054 0.487217 0.220391
497 2 0.181336 0.59093 0.392647
294 2 0.0162548 0.542117 0.15472
375 2 0.129323 0.520041 0.15164
261 2 0.081184 0.520051 0.419066
269 2 0.0607581 0.542737 0.0378094
458 2 0.0813066 0.401195 0.356993
594 2 0.217137 0.516515 0.242826
21 1 0.0438798 0.441349 0.301872
440 2 0.193772 0.467192 0.442349
32 1 0.239299 0.412522 0.424096
553 2 0.0928327 0.494478 0.264175
164 1 0.080246 0.564457 0.1126
5 1 0.156323 0.532691 0.44066
496 2 0.0998215 0.638403 0.112995
229 2 0.0331738 0.436227 0.0256668
98 1 0.168163 0.657384 0.353366
384 2 0.131496 0.350342 0.0419954
102 1 0.0223463 0.347386 0.201789
502 2 0.0443986 0.372309 0.132377
642 2 0.108502 0.351514 0.478598
190 1 0.0544582 0.370548 0.0542686
629 2 0.19711 0.362302 0.387692
168 1 0.112377 0.352489 0.403462
287 2 0.00376766 0.401818 0.257527
398 2 0.0923892 0.661002 0.35055
611 2 0.237563 0.393506 0.0643414
76 1 0.0182638 0.658368 0.357344
42 1 0.00736442 0.526527 0.395895
556 2 0.00412957 0.662567 0.283624
127 1 0.171557 0.341357 0.223093
104 1 0.0347851 0.575462 0.671991
484 2 0.0663224 0.406536 0.71578
187 1 0.0935254 0.658814 0.778739
397 2 0.152241 0.562973 0.510628
116 1 0.0337877 0.466234 0.759892
306 2 0.0857774 0.620437 0.85077
400 2 0.18696 0.346706 0.817793
145 1 0.0808153 0.396249 0.539346
643 2 0.185871 0.557856 0.846371
517 2 0.082391 0.510996 0.920105
177 1 0.108868 0.545451 0.854456
227 2 0.0768596 0.509982 0.801739
307 2 0.215838 0.555735 0.59823
281 2 0.0765403 0.357069 0.609672
501 2 0.0935772 0.552533 0.630762
336 2 0.1203 0.455805 0.556631
166 1 0.151365 0.527067 0.576815
646 2 0.0616041 0.617111 0.724687
68 1 0.0324868 0.502165 0.984399
401 2 0.0113035 0.401271 0.522614
394 2 0.239467 0.974971 0.373262
286 2 0.172112 0.721161 0.182492
600 2 0.113729 0.746453 0.0606769
503 2 0.064495 0.725454 0.182662
189 1 0.222001 0.703141 0.487369
125 1 0.201622 0.743871 0.248617
451 2 0.0568759 0.944339 0.0370327
162 1 0.0450924 0.961514 0.339977
354 2 0.0891005 0.898435 0.491613
350 2 0.150402 0.786449 0.28828
435 2 0.103535 0.791585 0.409842
71 1 0.0624324 0.831602 0.469276
215 1 0.115785 0.836293 0.337671
619 2 0.0601231 0.880807 0.334201
558 2 0.174953 0.880893 0.357694
206 1 0.119054 0.710519 0.132988
410 2 0.191188 0.694832 0.416656
567 2 0.0293386 0.997793 0.265467
218 2 0.214083 0.68294 0.297943
380 2 0.24413 0.89831 0.466411
472 2 0.00655875 0.992 0.145458
150 1 0.241956 0.906391 0.387308
575 2 0.110074 0.981874 0.368366
56 1 0.000684126 0.706026 0.216731
73 1 0.0742965 0.926693 0.564605
584 2 0.0703336 0.789328 0.532666
88 1 0.138822 0.849221 0.664211
323 2 0.128762 0.897608 0.605982
324 2 0.127888 0.777601 0.626166
593 2 0.20778 0.88392 0.938931
178 1 0.101734 0.739652 0.569523
258 2 0.176593 0.742588 0.956055
403 2 0.193189 0.871825 0.702902
126 1 0.109194 0.745805 0.977369
247 2 0.0792925 0.836317 0.727106
59 1 0.209469 0.916309 0.759917
623 2 0.0366965 0.717262 0.960585
473 2 0.00424444 0.897396 0.577365
393 2 0.164484 0.682749 0.750056
18 1 0.149777 0.875839 0.885458
39 1 0.0602082 0.799436 0.793796
364 2 0.104739 0.939285 0.914779
239 2 0.0584291 0.727511 0.793783
304 2 0.186881 0.897238 0.829839
303 2 0.109101 0.819664 0.849792
583 2 0.040546 0.684542 0.580291
429 2 0.165957 0.705113 0.539457
24 1 0.227811 0.684371 0.712607
578 2 0.0896359 0.827562 0.973976
49 1 0.0609982 0.900585 0.971705
450 2 0.171522 0.982513 0.744972
50 1 0.247583 0.729889 0.964358
221 2 0.244894 0.758313 0.694653
388 2 0.290193 0.0620802 0.259522
299 2 0.483338 0.0536463 0.402677
610 2 0.493085 0.168434 0.433078
355 2 0.328213 0.266209 0.208388
421 2 0.42402 0.198943 0.128475
38 1 0.399861 0.251718 0.175157
275 2 0.392838 0.0204766 0.318647
560 2 0.476827 0.209767 0.0185316
23 1 0.465527 0.0561163 0.186942
467 2 0.471077 0.269385 0.354064
154 1 0.44893 0.312807 0.288518
509 2 0.417568 0.312114 0.121089
404 2 0.406068 0.0974337 0.231418
461 2 0.442618 0.265803 0.229585
33 1 0.408084 0.180781 0.0570308
635 2 0.382316 0.210643 0.426942
9 1 0.433009 0.053516 0.0411313
321 2 0.461874 0.0610409 0.11216
15 1 0.32981 0.189637 0.375297
212 1 0.457492 0.23384 0.422839
438 2 0.477778 0.274571 0.484148
95 1 0.359715 0.0793391 0.293875
422 2 0.364621 0.137928 0.333729
412 2 0.296265 0.243414 0.3309
582 2 0.389675 0.114026 0.0381997
444 2 0.271494 0.152086 0.41253
365 2 0.273409 0.0334554 0.0532282
135 1 0.272705 0.24586 0.261129
246 2 0.353048 0.225824 0.0422792
58 1 0.455024 0.321522 0.926572
605 2 0.489709 0.0298974 0.649753
455 2 0.404489 0.154416 0.709286
325 2 0.312911 0.242811 0.919219
519 2 0.45339 0.00280554 0.769019
20 1 0.435752 0.0402214 0.840296
109 1 0.349954 0.265054 0.854507
224 2 0.414749 0.282859 0.876815
512 2 0.282221 0.128243 0.749708
192 1 0.348982 0.138776 0.77078
492 2 0.387444 0.098461 0.815879
348 2 0.34959 0.212485 0.801569
119 1 0.454935 0.325865 0.662614
260 2 0.481694 0.259436 0.672275
204 1 0.476846 0.184041 0.696994
546 2 0.268122 0.15045 0.99183
93 1 0.288577 0.225467 0.995873
130 1 0.293859 0.321069 0.523928
257 2 0.498496 0.0635396 0.875942
329 2 0.483866 0.0465216 0.98411
367 2 0.416695 0.326635 0.995415
271 2 0.279153 0.478898 0.140734
405 2 0.494431 0.658736 0.0515012
439 2 0.389188 0.353897 0.308578
144 1 0.289711 0.44249 0.0730219
346 2 0.49405 0.565414 0.355511
385 2 0.286765 0.481553 0.00884708
232 2 0.479211 0.389064 0.47052
317 2 0.410495 0.468969 0.325626
196 1 0.353823 0.419528 0.317521
291 2 0.355718 0.403856 0.072405
614 2 0.304828 0.435768 0.380276
44 1 0.28302 0.493559 0.209766
407 2 0.311782 0.438021 0.256278
633 2 0.488947 0.623368 0.457333
470 2 0.42638 0.573439 0.190727
621 2 0.327253 0.553643 0.230405
14 1 0.368198 0.612345 0.201274
500 2 0.331944 0.628538 0.133589
67 1 0.485019 0.499248 0.321574
480 2 0.340602 0.592017 0.0176648
146 1 0.409819 0.361619 0.0627562
110 1 0.318265 0.654402 0.059996
493 2 0.484165 0.397478 0.0850101
213 1 0.497402 0.54711 0.183564
311 2 0.260867 0.365637 0.482611
55 1 0.497322 0.510667 0.567164
290 2 0.31109 0.451303 0.641721
132 1 0.251846 0.38019 0.814314
528 2 0.451933 0.391485 0.89151
466 2 0.308572 0.337229 0.846339
617 2 0.371476 0.342422 0.677654
396 2 0.407482 0.612133 0.767228
207 1 0.305022 0.374384 0.664173
163 1 0.438509 0.468309 0.874013
626 2 0.306817 0.548134 0.788826
312 2 0.412913 0.498685 0.804106
587 2 0.377228 0.483502 0.916651
510 2 0.428346 0.490407 0.563878
179 1 0.355792 0.507793 0.615595
282 2 0.33089 0.573221 0.586547
374 2 0.377729 0.52622 0.68107
35 1 0.328282 0.529149 0.962923
141 1 0.376064 0.546378 0.757633
53 1 0.445762 0.336848 0.517244
352 2 0.26462 0.381621 0.73405
463 2 0.268334 0.65605 0.525016
87 1 0.259321 0.533928 0.843312
338 2 0.256864 0.458902 0.831324
288 2 0.284344 0.562006 0.907305
524 2 0.447025 0.343736 0.590644
607 2 0.479767 0.633942 0.864047
222 2 0.496095 0.51425 0.890717
123 1 0.27069 0.610225 0.591933
490 2 0.499962 0.582064 0.576663
460 2 0.285424 0.347542 0.598463
597 2 0.250948 0.644734 0.65426
208 1 0.442921 0.663871 0.807125
319 2 0.366064 0.338295 0.507316
262 2 0.269195 0.774733 0.251727
90 1 0.374715 0.931394 0.192831
274 2 0.376762 0.699374 0.0533909
297 2 0.33953 0.888781 0.247837
415 2 0.42853 0.982783 0.195696
449 2 0.467123 0.677786 0.330001
525 2 0.412673 0.881134 0.140426
598 2 0.255845 0.683891 0.0283949
508 2 0.487424 0.858027 0.0319475
143 1 0.472182 0.846657 0.108384
586 2 0.296826 0.913261 0.0417129
550 2 0.290977 0.863144 0.346829
513 2 0.353768 0.859528 0.487317
8 1 0.423561 0.878699 0.46641
301 2 0.381167 0.778003 0.300815
273 2 0.468931 0.823453 0.435005
527 2 0.4329 0.938068 0.419788
113 1 0.437024 0.72929 0.287286
107 1 0.446543 0.715886 0.0506662
284 2 0.397938 0.680072 0.233876
209 1 0.32227 0.824551 0.288547
454 2 0.327736 0.972596 0.152285
577 2 0.460121 0.766632 0.108098
188 1 0.441543 0.994686 0.372207
201 1 0.315006 0.976188 0.0784477
226 2 0.387204 0.996212 0.0444457
223 2 0.252871 0.778803 0.492654
353 2 0.498762 0.961032 0.324822
436 2 0.464797 0.760025 0.979399
295 2 0.341585 0.829515 0.706391
252 2 0.28438 0.916741 0.763298
522 2 0.276468 0.676185 0.775395
243 2 0.35924 0.76215 0.6076
129 1 0.302258 0.798022 0.645736
92 1 0.430668 0.732726 0.597189
475 2 0.278008 0.805863 0.980719
443 2 0.459738 0.902323 0.532323
641 2 0.279109 0.842645 0.586268
131 1 0.281885 0.850091 0.51262
1 1 0.334651 0.857363 0.776257
26 1 0.484379 0.829935 0.963211
545 2 0.2793 0.712038 0.902399
612 2 0.396711 0.886133 0.811468
487 2 0.452261 0.887141 0.926191
121 1 0.398427 0.911662 0.88607
608 2 0.328982 0.893279 0.912619
340 2 0.383442 0.703193 0.828509
139 1 0.309053 0.721553 0.825993
413 2 0.305338 0.79941 0.815373
149 1 0.275931 0.878755 0.96664
468 2 0.453369 0.680888 0.650945
639 2 0.467195 0.799179 0.613441
279 2 0.453331 0.694994 0.53664
636 2 0.397208 0.988336 0.890824
532 2 0.498633 0.679251 0.758141
331 2 0.698244 0.304642 0.34812
136 1 0.652061 0.240328 0.186561
402 2 0.623642 0.173757 0.165616
343 2 0.745962 0.113075 0.0234885
231 2 0.631734 0.0496435 0.141155
433 2 0.594249 0.286166 0.214463
173 1 0.63938 0.146307 0.410159
479 2 0.688689 0.275086 0.126861
167 1 0.588354 0.105337 0.136894
363 2 0.56107 0.12642 0.0710332
193 1 0.670926 0.284289 0.0482855
344 2 0.536523 0.088338 0.188406
389 2 0.705483 0.236813 0.24071
416 2 0.603659 0.243702 0.0318031
142 1 0.71335 0.231468 0.320562
559 2 0.688729 0.0912509 0.37554
406 2 0.592212 0.0968252 0.441943
267 2 0.653052 0.195916 0.349225
183 1 0.680294 0.0289058 0.339041
625 2 0.659701 0.191455 0.469751
60 1 0.553224 0.189394 0.0218776
391 2 0.67873 0.0461992 0.259631
128 1 0.65209 0.0101833 0.198566
103 1 0.521689 0.102995 0.457941
308 2 0.721267 0.235945 0.0114954
465 2 0.623456 0.145219 0.704344
69 1 0.590474 0.119305 0.76756
77 1 0.708204 0.207224 0.519379
476 2 0.722089 0.211591 0.810498
387 2 0.504867 0.0859441 0.527419
65 1 0.684638 0.139202 0.663234
579 2 0.563875 0.0529676 0.747297
447 2 0.702617 0.0602678 0.643849
172 1 0.662801 0.0111619 0.606691
180 1 0.545342 0.0646615 0.941592
489 2 0.713153 0.296609 0.719822
411 2 0.714162 0.00144996 0.857758
526 2 0.685088 0.168807 0.584651
570 2 0.699869 0.285192 0.541951
540 2 0.566127 0.142159 0.961885
589 2 0.698042 0.165633 0.919344
86 1 0.659728 0.185687 0.85407
191 1 0.518723 0.0684449 0.596139
555 2 0.626617 0.245939 0.860886
238 2 0.594618 0.0401225 0.59431
427 2 0.626356 0.128823 0.827911
165 1 0.59135 0.308592 0.875367
369 2 0.732081 0.186103 0.703882
515 2 0.528932 0.166122 0.76495
264 2 0.593597 0.0243681 0.924877
268 2 0.501097 0.137848 0.640161
78 1 0.743354 0.177921 0.975383
408 2 0.522989 0.297122 0.924088
581 2 0.707092 0.00664462 0.963766
552 2 0.69699 0.428511 0.374075
430 2 0.602355 0.448353 0.0565502
114 1 0.683581 0.57481 0.414728
83 1 0.670318 0.43341 0.446353
108 1 0.531059 0.439782 0.441953
160 1 0.635539 0.65151 0.32128
464 2 0.514531 0.45297 0.370896
337 2 0.57634 0.649883 0.367192
3 1 0.670048 0.430495 0.0350665
514 2 0.666513 0.513548 0.452604
300 2 0.657276 0.582183 0.343328
392 2 0.58304 0.399319 0.169412
592 2 0.626315 0.380585 0.287104
315 2 0.709222 0.474705 0.0775268
631 2 0.604086 0.593886 0.0704972
7 1 0.694114 0.373714 0.316785
296 2 0.558455 0.593273 0.188023
630 2 0.600531 0.411785 0.462461
551 2 0.678227 0.60807 0.167748
157 1 0.617483 0.62734 0.14237
151 1 0.545531 0.440212 0.109212
471 2 0.655745 0.633455 0.448776
57 1 0.560045 0.630577 0.0183901
158 1 0.577114 0.361974 0.230516
241 2 0.680663 0.351262 0.0318176
278 2 0.503591 0.356726 0.262381
483 2 0.717311 0.394053 0.486019
316 2 0.52063 0.496675 0.493922
613 2 0.51359 0.501563 0.129569
599 2 0.504146 0.519946 0.251852
89 1 0.504184 0.632642 0.382774
47 1 0.746942 0.595773 0.192512
419 2 0.634911 0.357028 0.90271
112 1 0.563599 0.384603 0.743202
378 2 0.681918 0.444614 0.96469
426 2 0.551588 0.610067 0.947782
590 2 0.585997 0.579083 0.829773
491 2 0.718023 0.37941 0.625271
70 1 0.69967 0.366534 0.698105
244 2 0.568809 0.462276 0.737858
254 2 0.694406 0.562677 0.756685
153 1 0.664836 0.536297 0.821839
538 2 0.543328 0.471796 0.617349
379 2 0.500854 0.37148 0.706305
171 1 0.681821 0.41531 0.895421
270 2 0.651827 0.459317 0.837612
542 2 0.673984 0.616446 0.633128
362 2 0.618357 0.360903 0.695463
255 2 0.653057 0.506899 0.665176
478 2 0.535209 0.57098 0.693718
17 1 0.571118 0.504933 0.677732
48 1 0.739781 0.34881 0.538318
51 1 0.699705 0.556488 0.677459
46 1 0.536227 0.57967 0.884252
604 2 0.74585 0.553756 0.998435
511 2 0.695632 0.552655 0.887771
137 1 0.518626 0.657355 0.68488
283 2 0.573651 0.352561 0.810508
322 2 0.733211 0.418727 0.730103
170 1 0.727787 0.59944 0.932798
211 1 0.502106 0.639843 0.52689
100 1 0.586842 0.736674 0.213607
361 2 0.694931 0.695451 0.338835
345 2 0.562761 0.875987 0.280897
366 2 0.623355 0.80387 0.203374
117 1 0.580922 0.880762 0.208108
342 2 0.605633 0.946906 0.211435
637 2 0.599695 0.772267 0.426982
250 2 0.616532 0.990323 0.34213
305 2 0.517537 0.750273 0.244353
333 2 0.677392 0.739642 0.497059
156 1 0.546997 0.834188 0.442806
148 1 0.621665 0.703034 0.470704
242 2 0.526058 0.867354 0.154932
576 2 0.575543 0.894354 0.406481
16 1 0.567681 0.927688 0.336327
351 2 0.73345 0.715054 0.0494423
272 2 0.710701 0.972225 0.172209
225 2 0.594151 0.697163 0.137008
620 2 0.629163 0.689634 0.255379
568 2 0.605293 0.698686 0.00790582
360 2 0.738238 0.977494 0.351325
197 1 0.608397 0.892019 0.690878
557 2 0.638943 0.829511 0.723827
234 2 0.732274 0.837809 0.547535
10 1 0.733557 0.762964 0.541476
390 2 0.645752 0.909175 0.908997
249 2 0.563437 0.872558 0.627959
115 1 0.507911 0.996571 0.719078
195 1 0.504296 0.85617 0.582404
462 2 0.647065 0.951251 0.667595
80 1 0.677382 0.718769 0.990366
276 2 0.662449 0.786316 0.956453
159 1 0.627468 0.835791 0.910026
99 1 0.653567 0.769679 0.770808
395 2 0.54614 0.935345 0.723694
314 2 0.689944 0.965448 0.554908
469 2 0.540899 0.828366 0.517648
603 2 0.641572 0.808956 0.833972
588 2 0.637555 0.714488 0.718234
277 2 0.548496 0.824509 0.924329
217 2 0.704081 0.737173 0.613659
155 1 0.658926 0.984877 0.910512
199 1 0.647514 0.68687 0.651117
609 2 0.570127 0.674445 0.519755
456 2 0.727567 0.749933 0.783409
84 1 0.741145 0.910675 0.540153
488 2 0.573889 0.67404 0.6413
477 2 0.697283 0.667548 0.943981
91 1 0.896825 0.321842 0.392322
349 2 0.786907 0.0101288 0.0778382
52 1 0.891789 0.169127 0.121163
30 1 0.846895 0.0579632 0.219996
330 2 0.875795 0.240975 0.14197
535 2 0.855087 0.114905 0.16061
516 2 0.9225 0.0302328 0.22932
561 2 0.913944 0.0306387 0.479441
236 2 0.878567 0.170882 0.0419411
28 1 0.978122 0.231643 0.311721
399 2 0.835911 0.100879 0.276955
326 2 0.785397 0.21085 0.329396
417 2 0.876926 0.255861 0.432972
381 2 0.909361 0.191298 0.316229
74 1 0.851171 0.189135 0.472106
640 2 0.822301 0.14721 0.412126
105 1 0.838422 0.15703 0.338727
358 2 0.956863 0.172313 0.152043
644 2 0.946615 0.296943 0.343644
504 2 0.955501 0.308449 0.18399
111 1 0.876652 0.308756 0.173113
140 1 0.765332 0.0410132 0.0115975
263 2 0.98993 0.0336376 0.0311763
332 2 0.811118 0.000202999 0.198254
335 2 0.838194 0.0531794 0.592164
549 2 0.920734 0.204005 0.666948
96 1 0.963513 0.266645 0.636753
585 2 0.823265 0.246415 0.744627
210 1 0.879063 0.197864 0.737919
547 2 0.860731 0.124383 0.73464
85 1 0.867779 0.0556031 0.75847
81 1 0.78818 0.0156689 0.875535
537 2 0.959246 0.0715589 0.571161
543 2 0.925815 0.202663 0.794279
437 2 0.814781 0.186008 0.944212
647 2 0.967951 0.29896 0.849755
520 2 0.8346 0.0434147 0.826359
505 2 0.930265 0.213239 0.927622
13 1 0.879096 0.170708 0.960008
564 2 0.888025 0.135007 0.510198
499 2 0.93029 0.112609 0.938663
596 2 0.938847 0.0367328 0.778082
61 1 0.971327 0.226731 0.858995
506 2 0.829052 0.0124823 0.709097
615 2 0.802607 0.0437061 0.944166
75 1 0.89704 0.0725261 0.545942
571 2 0.911104 0.321138 0.629934
152 1 0.991693 0.0887033 0.979798
253 2 0.783801 0.203831 0.513426
4 1 0.752502 0.244401 0.749861
409 2 0.8407 0.484338 0.0652144
334 2 0.915124 0.410185 0.0140837
285 2 0.920276 0.466946 0.136958
22 1 0.94963 0.422159 0.478761
486 2 0.756874 0.647364 0.236989
120 1 0.880572 0.428237 0.0833092
428 2 0.908886 0.587589 0.113398
414 2 0.784154 0.545456 0.242953
627 2 0.908421 0.562404 0.23287
101 1 0.855741 0.522952 0.274206
601 2 0.968921 0.491921 0.455481
280 2 0.850791 0.368804 0.128307
377 2 0.863724 0.632615 0.445982
184 1 0.827615 0.383337 0.283963
327 2 0.85359 0.446522 0.27305
205 1 0.83212 0.603133 0.388449
648 2 0.867434 0.549285 0.350104
19 1 0.938592 0.536151 0.16038
200 1 0.77206 0.525559 0.0598711
240 2 0.999734 0.600025 0.393172
230 2 0.930912 0.374076 0.430029
256 2 0.755024 0.391416 0.271991
383 2 0.778514 0.569151 0.121754
54 1 0.910871 0.662403 0.105696
638 2 0.822375 0.660225 0.332327
569 2 0.760588 0.578186 0.403938
572 2 0.842031 0.353819 0.357746
632 2 0.995635 0.491582 0.330039
328 2 0.860155 0.333774 0.242669
494 2 0.845233 0.417009 0.659571
147 1 0.79742 0.458508 0.703053
203 1 0.866302 0.378415 0.594496
134 1 0.949599 0.366631 0.84194
313 2 0.769074 0.521969 0.668929
562 2 0.803331 0.61548 0.901376
624 2 0.890776 0.421947 0.532739
495 2 0.809477 0.347423 0.559514
548 2 0.858219 0.465097 0.910229
452 2 0.87062 0.372369 0.834732
347 2 0.958108 0.406703 0.907852
293 2 0.818463 0.474428 0.782093
12 1 0.823187 0.432357 0.853379
45 1 0.923824 0.456156 0.946449
474 2 0.980499 0.427821 0.804189
459 2 0.975951 0.598053 0.624742
442 2 0.754706 0.404038 0.877945
539 2 0.966928 0.518443 0.950101
622 2 0.998076 0.509653 0.708051
176 1 0.960083 0.664546 0.603448
64 1 0.763167 0.700206 0.297884
175 1 0.980915 0.993647 0.216039
521 2 0.952592 0.916851 0.218959
106 1 0.803013 0.733535 0.049092
216 1 0.86229 0.858459 0.0885726
533 2 0.9156 0.842802 0.131811
245 2 0.951817 0.678675 0.0383595
94 1 0.931646 0.834182 0.201755
529 2 0.822576 0.800383 0.0665745
544 2 0.810791 0.90089 0.117377
645 2 0.858327 0.965445 0.386205
11 1 0.949108 0.779305 0.404616
446 2 0.97592 0.718574 0.378117
161 1 0.922143 0.973501 0.432758
320 2 0.980273 0.970958 0.380493
382 2 0.861955 0.833561 0.24065
66 1 0.790084 0.938423 0.387817
237 2 0.79086 0.868064 0.35754
122 1 0.832937 0.819656 0.311296
97 1 0.776879 0.965573 0.141443
481 2 0.841105 0.688266 0.0978242
616 2 0.800845 0.761676 0.291489
266 2 0.895709 0.804319 0.355222
574 2 0.892072 0.880712 0.0178781
423 2 0.996429 0.818399 0.437832
302 2 0.960343 0.685229 0.163413
228 2 0.969498 0.774222 0.235193
265 2 0.898718 0.747155 0.456686
628 2 0.768064 0.921715 0.465225
169 1 0.863754 0.691876 0.496198
233 2 0.930727 0.919793 0.487645
220 2 0.99742 0.843571 0.8051
82 1 0.96317 0.880637 0.748635
606 2 0.892598 0.955351 0.609451
536 2 0.913316 0.826094 0.596804
186 1 0.925693 0.89561 0.562996
124 1 0.84559 0.682672 0.904077
372 2 0.831424 0.780678 0.703044
25 1 0.906697 0.777778 0.665228
368 2 0.90731 0.679615 0.553167
507 2 0.813105 0.943746 0.875337
534 2 0.948783 0.829884 0.69781
531 2 0.99973 0.942444 0.727407
292 2 0.825543 0.717374 0.968143
202 1 0.798472 0.76766 0.776981
251 2 0.830806 0.720667 0.834272
37 1 0.930888 0.850372 0.960301
341 2 0.887985 0.85324 0.899018
420 2 0.898451 0.907587 0.786413
565 2 0.941437 0.710966 0.665934
563 2 0.920017 0.671103 0.915272
541 2 0.809443 0.834909 0.808864
182 1 0.847251 0.881428 0.845779
310 2 0.796138 0.719993 0.526638
425 2 0.779933 0.931211 0.601058
214 1 0.961663 0.701927 0.966724
376 2 0.942184 0.775087 0.97526
31 1 0.828995 0.990162 0.625889
457 2 0.986654 0.895754 0.952526
ITEM: TIMESTEP
1105000
ITEM: NUMBER OF ATOMS
648
ITEM: BOX BOUNDS xy xz yz pp pp pp
-0.0160071 21.9081 -0.0628648
0.0808182 21.7015 0.560077
0.312262 21.0826 0.38745
ITEM: ATOMS id type xs ys zs
29 1 0.122332 0.0705489 0.148138
127 1 0.161574 0.315615 0.183621
386 2 0.0229808 0.158569 0.0218134
118 1 0.236307 0.0747078 0.247999
432 2 0.0579473 0.10093 0.178971
318 2 0.184001 0.0562979 0.199605
289 2 0.0643794 0.214402 0.12643
595 2 0.0638279 0.206611 0.47777
580 2 0.10282 0.29216 0.38661
309 2 0.239082 0.150723 0.235288
530 2 0.0342675 0.20263 0.342676
79 1 0.0261014 0.166767 0.165878
602 2 0.211942 0.265362 0.224335
248 2 0.178759 0.055711 0.447145
263 2 0.00108109 0.0354547 0.042189
575 2 0.0960847 0.017729 0.363453
357 2 0.00877826 0.201553 0.228508
198 1 0.204559 0.129545 0.464206
373 2 0.148365 0.180541 0.420999
434 2 0.0882985 0.0125604 0.116541
27 1 0.0808233 0.213639 0.407364
431 2 0.149776 0.110558 0.0820475
359 2 0.200128 0.0708502 0.322462
43 1 0.200014 0.108594 0.0227967
2 1 0.0531347 0.224484 0.0490125
259 2 0.0347565 0.298418 0.0452383
418 2 0.171145 0.302064 0.114873
634 2 0.0881257 0.30952 0.219602
62 1 0.166667 0.0208666 0.381944
546 2 0.236331 0.168566 0.0138343
482 2 0.245838 0.288475 0.0230652
181 1 0.0619513 0.187724 0.561274
34 1 0.199586 0.21884 0.572534
370 2 0.0122883 0.0262814 0.65319
523 2 0.12468 0.227423 0.575283
41 1 0.037043 0.0473688 0.585231
618 2 0.180401 0.105809 0.715825
591 2 0.0992484 0.311063 0.739846
554 2 0.0585011 0.116593 0.584825
339 2 0.065717 0.0619599 0.760176
235 2 0.16369 0.0715181 0.972614
566 2 0.245206 0.256517 0.52325
356 2 0.13569 0.155902 0.896807
441 2 0.156156 0.0478489 0.835879
371 2 0.187178 0.226532 0.763693
63 1 0.155204 0.28719 0.792318
453 2 0.0986696 0.231086 0.984728
152 1 0.00865226 0.0881901 0.988876
36 1 0.143473 0.051851 0.757109
445 2 0.127841 0.266656 0.865437
6 1 0.130077 0.0768015 0.905996
40 1 0.0958838 0.216461 0.911724
448 2 0.0282438 0.206737 0.882735
298 2 0.0512046 0.0692726 0.926947
194 1 0.00781254 0.0227548 0.735605
219 2 0.20268 0.144316 0.542792
138 1 0.215319 0.169313 0.71526
573 2 0.228543 0.208082 0.640499
518 2 0.0177645 0.313432 0.654876
424 2 0.171779 0.389653 0.193439
72 1 0.161303 0.468305 0.209324
497 2 0.158907 0.588378 0.365472
410 2 0.190518 0.662144 0.439811
375 2 0.132276 0.507047 0.151044
261 2 0.089593 0.523485 0.420487
269 2 0.046545 0.530254 0.0493534
458 2 0.0803968 0.409114 0.352227
594 2 0.220378 0.48896 0.247734
21 1 0.0353224 0.443712 0.305182
440 2 0.207189 0.487855 0.422452
384 2 0.137463 0.363961 0.0195854
553 2 0.089421 0.471684 0.253423
164 1 0.0725432 0.552066 0.117527
5 1 0.157466 0.540547 0.424738
496 2 0.116011 0.620678 0.126787
294 2 0.0106279 0.575213 0.162772
287 2 -0.000591247 0.399942 0.248585
102 1 0.0303055 0.345571 0.197096
42 1 0.0188864 0.542842 0.40702
502 2 0.0562031 0.377561 0.122832
642 2 0.0989025 0.374889 0.476701
190 1 0.0703501 0.365229 0.0452422
632 2 0.0131009 0.507862 0.338466
32 1 0.254161 0.407981 0.411613
168 1 0.118315 0.363113 0.400288
240 2 0.00986862 0.610776 0.396578
98 1 0.16424 0.656702 0.36218
174 1 0.20026 0.338348 0.0468663
611 2 0.245269 0.391871 0.0716563
629 2 0.192631 0.366687 0.389396
104 1 0.0300526 0.585753 0.675775
484 2 0.0778037 0.427989 0.698123
622 2 0.00869491 0.522047 0.718787
185 1 0.0781911 0.350176 0.681126
116 1 0.0428827 0.464874 0.757423
306 2 0.108603 0.601081 0.839381
68 1 0.0259288 0.4984 0.980658
145 1 0.0845054 0.403402 0.551187
643 2 0.198192 0.530929 0.858186
517 2 0.0859265 0.509487 0.929191
177 1 0.125217 0.529216 0.863945
227 2 0.0891352 0.495757 0.801478
307 2 0.209995 0.54364 0.595919
281 2 0.111867 0.364578 0.606871
501 2 0.0792064 0.56591 0.615829
336 2 0.117811 0.468858 0.555993
166 1 0.133923 0.542709 0.570561
646 2 0.0733445 0.627091 0.721904
400 2 0.190806 0.354409 0.791227
187 1 0.115838 0.654616 0.782675
401 2 0.00929578 0.417396 0.545229
397 2 0.149696 0.561713 0.494152
229 2 0.0339528 0.424593 1.00346
218 2 0.195795 0.701283 0.317309
286 2 0.175707 0.719997 0.198053
600 2 0.142633 0.732961 0.0752751
503 2 0.0572525 0.720063 0.169866
354 2 0.0874908 0.883417 0.493567
125 1 0.204358 0.754327 0.262493
451 2 0.0411028 0.929019 0.0475154
162 1 0.0390591 0.968882 0.348161
394 2 0.220028 0.964873 0.384569
350 2 0.152343 0.807098 0.275483
435 2 0.06899 0.815042 0.379463
71 1 0.0571848 0.824342 0.455299
215 1 0.123775 0.842103 0.333431
619 2 0.0874558 0.911146 0.325158
558 2 0.178839 0.845156 0.383186
206 1 0.129454 0.695219 0.140403
133 1 0.0219221 0.978847 0.0959724
578 2 0.0920705 0.829895 -0.00143912
150 1 0.239483 0.893534 0.390218
556 2 0.00151883 0.680818 0.282001
567 2 0.00288615 0.987797 0.28633
76 1 0.0195673 0.68094 0.357605
398 2 0.0944335 0.691621 0.371711
126 1 0.117081 0.75792 0.00864586
223 2 0.246206 0.749187 0.50146
73 1 0.0691819 0.91365 0.561886
593 2 0.208209 0.867287 0.927057
88 1 0.123302 0.828252 0.672517
323 2 0.103248 0.877788 0.620634
324 2 0.115453 0.758767 0.639221
450 2 0.16368 0.982272 0.724664
178 1 0.0927999 0.719289 0.575411
258 2 0.173974 0.731218 0.959685
403 2 0.182647 0.85305 0.70945
24 1 0.247592 0.69177 0.720906
247 2 0.0767751 0.820778 0.729558
59 1 0.200375 0.909063 0.755601
623 2 0.0576058 0.721324 0.981582
531 2 0.0148567 0.946622 0.762252
49 1 0.0553128 0.896468 0.983565
18 1 0.149425 0.881235 0.885507
39 1 0.0647961 0.798838 0.802909
364 2 0.0928217 0.921548 0.92417
239 2 0.0808043 0.720589 0.802539
304 2 0.175304 0.919833 0.823401
303 2 0.11953 0.828153 0.848741
583 2 0.0221191 0.689584 0.592868
429 2 0.156369 0.683724 0.561151
584 2 0.0746857 0.770421 0.514688
485 2 0.0794554 0.990795 0.56696
393 2 0.186073 0.664898 0.746025
189 1 0.212297 0.675613 0.508224
388 2 0.297908 0.0298568 0.248928
438 2 0.459506 0.259184 0.467146
135 1 0.264719 0.222186 0.251735
355 2 0.322008 0.229512 0.202341
421 2 0.422538 0.190928 0.119014
38 1 0.389125 0.241233 0.162734
246 2 0.345868 0.214049 0.0292314
412 2 0.278759 0.220028 0.326616
23 1 0.455148 0.0380023 0.187062
467 2 0.456135 0.250948 0.338948
154 1 0.460043 0.293212 0.27658
299 2 0.483532 0.0320722 0.449969
404 2 0.414728 0.0727829 0.241719
461 2 0.445288 0.258523 0.214424
33 1 0.413978 0.181463 0.0423982
635 2 0.376195 0.199191 0.410071
610 2 0.484354 0.149137 0.410861
321 2 0.433079 0.0359288 0.106851
15 1 0.311193 0.172759 0.379975
212 1 0.446525 0.2152 0.409738
365 2 0.249682 0.0547064 0.050088
95 1 0.357443 0.0550459 0.287575
422 2 0.325924 0.115791 0.329222
9 1 0.428335 0.0397305 0.0338192
560 2 0.484013 0.206127 0.0154073
509 2 0.401853 0.308638 0.126767
444 2 0.270407 0.146733 0.427911
582 2 0.408845 0.112806 0.0208995
53 1 0.440592 0.323197 0.49747
275 2 0.394362 0.0167415 0.343826
329 2 0.493339 0.0367135 0.987729
260 2 0.477224 0.260013 0.656955
455 2 0.397766 0.18038 0.715046
325 2 0.305236 0.241343 0.928042
204 1 0.468927 0.194384 0.690115
20 1 0.411416 0.0440784 0.824128
109 1 0.347357 0.277053 0.875802
224 2 0.407846 0.312454 0.909299
512 2 0.276287 0.162401 0.755522
192 1 0.346879 0.167409 0.782547
492 2 0.367233 0.104815 0.81958
348 2 0.364544 0.229783 0.817919
460 2 0.276327 0.332348 0.601776
115 1 0.495994 0.00355993 0.717238
93 1 0.281461 0.223955 0.998031
130 1 0.289405 0.321619 0.529997
519 2 0.432681 0.0271362 0.754632
257 2 0.466457 0.0667982 0.873561
268 2 0.485147 0.128191 0.64161
319 2 0.370048 0.32175 0.512999
466 2 0.29366 0.327627 0.844545
617 2 0.391501 0.325638 0.648406
271 2 0.290949 0.467636 0.150298
493 2 0.476196 0.422602 0.096692
599 2 0.500473 0.480619 0.247936
144 1 0.301513 0.445753 0.0767153
346 2 0.462672 0.565016 0.345168
439 2 0.401271 0.345982 0.289054
146 1 0.422168 0.366439 0.0758391
317 2 0.422682 0.451749 0.356935
196 1 0.371805 0.410731 0.320647
291 2 0.362294 0.407825 0.0729545
614 2 0.309904 0.398912 0.360899
44 1 0.291463 0.49059 0.223366
407 2 0.34706 0.449868 0.255197
500 2 0.33887 0.603465 0.108457
470 2 0.432759 0.562799 0.170769
621 2 0.326949 0.560156 0.233162
14 1 0.369974 0.601783 0.179276
385 2 0.295491 0.494401 0.0216593
67 1 0.481411 0.49465 0.325128
232 2 0.466974 0.375909 0.444166
311 2 0.265155 0.370696 0.480111
110 1 0.34363 0.646365 0.0377876
633 2 0.464468 0.652481 0.43421
89 1 0.481714 0.640354 0.357262
367 2 0.454549 0.339967 0.0139655
123 1 0.26652 0.595728 0.603563
290 2 0.331666 0.430651 0.64044
35 1 0.340305 0.526048 0.968082
528 2 0.475304 0.41187 0.898257
352 2 0.293863 0.349442 0.725076
58 1 0.468696 0.34871 0.932923
396 2 0.426281 0.608244 0.783428
207 1 0.320033 0.35784 0.650054