ITEM: TIMESTEP
0
ITEM: NUMBER OF ATOMS
648
ITEM: BOX BOUNDS xy xz yz pp pp pp
-0.0160071 21.9081 -0.0628648
0.0808182 21.7015 0.560077
0.312262 21.0826 0.38745
ITEM: ATOMS id type x y z
29 1 2.96402 2.01647 3.31174
318 2 3.9101 1.37647 4.42534
432 2 1.84001 2.96065 3.96829
595 2 1.14523 4.69677 10.4124
431 2 3.8493 2.76902 2.1968
434 2 2.20858 0.911926 2.44407
43 1 4.64734 2.29061 0.877108
79 1 0.729166 4.12515 3.86549
62 1 3.98977 0.558143 8.37531
198 1 4.35147 2.97957 9.85118
373 2 2.92284 3.42797 9.2316
567 2 0.928847 0.370503 6.12525
27 1 1.68411 4.39956 8.9252
118 1 4.84782 1.79489 5.63791
359 2 4.21423 1.46147 7.06228
248 2 4.4113 1.40526 9.65155
530 2 0.526938 3.96494 7.89874
309 2 5.03858 3.39085 5.46494
2 1 1.21319 5.03727 0.958075
289 2 1.30523 4.9553 2.56677
357 2 0.339666 4.62372 5.36529
386 2 0.546889 3.60132 0.569548
444 2 5.50928 3.66642 8.98894
133 1 0.869305 0.128478 2.0469
181 1 1.47111 4.57388 11.9832
34 1 4.5374 4.78485 12.3038
523 2 2.95534 5.14034 12.2965
339 2 2.03928 1.50202 16.1861
618 2 4.18024 2.99865 15.769
41 1 1.13738 1.47522 12.4374
554 2 1.60587 3.00353 12.3425
194 1 0.762111 0.796883 15.531
138 1 5.28023 4.08331 15.3301
219 2 4.54836 3.5002 11.338
448 2 1.31183 4.98809 18.7038
371 2 5.06199 5.44817 16.1597
573 2 5.07849 4.45534 13.7753
36 1 3.64388 1.58937 16.3072
453 2 2.97392 5.39586 20.6372
6 1 3.37489 2.17276 19.2073
40 1 2.88273 5.13378 19.0448
298 2 1.80961 2.09296 19.6503
235 2 4.23769 2.01745 20.5434
356 2 3.55917 3.72576 18.7898
441 2 3.88911 1.42283 17.898
370 2 0.951071 1.06096 13.9651
450 2 4.40839 0.435651 15.4585
152 1 0.632606 2.57119 20.6585
546 2 5.91555 3.9573 21.0067
502 2 1.06898 8.21013 2.62321
424 2 3.8274 8.52286 4.59228
311 2 5.50124 8.25732 10.4286
72 1 3.43572 10.0762 4.81846
384 2 2.99434 7.72637 0.886752
174 1 4.43386 7.24832 1.41851
127 1 3.60299 6.93855 4.35466
418 2 4.07271 6.60762 2.85496
259 2 0.703493 6.57046 0.706698
553 2 2.26014 10.0618 5.89962
602 2 4.45219 5.97527 5.28353
634 2 2.006 6.81318 4.50977
102 1 0.644772 7.5435 4.02966
32 1 5.15039 8.73888 8.92818
629 2 4.09215 7.74116 8.23855
458 2 1.60731 8.22011 7.56591
168 1 2.56613 7.35858 8.52497
642 2 2.42979 7.8364 10.077
21 1 0.997028 9.27526 6.51048
580 2 2.26855 5.80216 8.39303
440 2 4.41462 10.1814 8.91883
190 1 1.41185 8.00204 1.04781
287 2 0.351946 8.55875 5.23511
611 2 5.34807 8.53515 1.72525
482 2 5.25731 6.21655 0.511384
591 2 3.08413 6.87784 15.4073
281 2 2.64663 7.88949 12.826
484 2 2.32366 9.26252 15.0242
185 1 2.25837 7.79125 14.3796
145 1 2.18333 8.6032 11.4704
336 2 2.86665 10.0486 11.5811
400 2 4.96256 7.93959 16.9545
445 2 3.41813 6.22096 18.0269
116 1 1.41321 10.2046 15.9453
63 1 4.09871 6.64197 16.6421
401 2 0.582423 8.85352 11.3988
229 2 1.66648 9.75653 21.0666
518 2 0.71445 7.34832 14.3015
566 2 5.44808 5.92954 11.6166
227 2 2.24162 10.8526 17.1563
503 2 1.28411 15.4189 4.02876
286 2 3.87112 15.4302 4.0216
164 1 1.80951 11.8507 2.92924
294 2 0.448449 11.6646 3.79863
397 2 3.3807 12.1363 10.3985
496 2 2.42299 13.3206 3.13198
206 1 2.57903 14.9261 3.19763
269 2 1.38099 11.6427 1.38752
600 2 2.48661 15.5381 1.72325
98 1 3.6491 14.1713 7.8628
398 2 2.03826 14.4188 7.92254
497 2 3.78581 12.5715 7.88353
42 1 0.266396 11.2477 8.49251
218 2 4.20283 14.9363 6.57173
410 2 4.45071 14.6465 9.17988
5 1 3.41046 11.4295 8.93437
76 1 0.431158 14.3009 7.71494
261 2 1.86459 11.0221 8.73078
125 1 4.29447 16.0733 5.42802
189 1 5.01226 14.8105 10.6766
594 2 4.72356 10.8469 5.32417
375 2 2.85351 10.7566 3.48076
583 2 1.10177 15.1485 12.4038
307 2 4.48118 11.926 12.7376
646 2 1.97741 13.7404 14.9619
501 2 1.95103 12.1926 12.7697
429 2 3.72915 14.9245 11.6667
258 2 4.29642 16.1336 20.2835
104 1 1.13779 12.6626 14.0803
166 1 3.15974 11.5944 11.9027
517 2 2.57618 11.7756 19.5688
623 2 1.61129 15.7106 20.3223
178 1 2.50966 15.8553 12.084
393 2 4.11282 14.922 15.8727
177 1 3.00558 11.9704 18.0355
187 1 2.60474 14.4829 16.2566
643 2 4.58389 11.8454 17.7627
239 2 1.86867 15.8242 16.7143
306 2 2.59464 13.3974 17.4312
622 2 0.903832 11.3982 15.0204
68 1 1.57945 11.3455 20.7479
24 1 5.57897 15.0015 15.2318
597 2 5.69873 13.8655 14.1043
451 2 1.22673 20.0204 1.27121
394 2 4.89547 20.5212 8.25032
354 2 1.97798 19.1453 10.2814
350 2 3.13119 17.138 5.86463
435 2 1.7172 17.3746 8.23066
71 1 1.42968 17.7075 9.76938
215 1 2.67147 18.0042 7.11451
619 2 1.95884 19.4124 6.86917
558 2 4.03561 18.2018 7.94589
162 1 1.23336 20.7478 7.43601
150 1 5.34943 19.001 8.41494
575 2 2.37455 21.4143 8.33274
73 1 1.82947 19.8973 11.7141
88 1 3.22079 18.2459 14.0363
323 2 2.68903 19.2676 12.9025
324 2 3.05691 16.8403 13.2399
39 1 1.97782 17.3997 16.885
403 2 4.4909 19.0531 14.6333
247 2 2.41888 17.9486 15.4163
59 1 4.86379 20.1742 15.7311
593 2 5.22377 19.0226 19.2371
578 2 2.56638 18.0382 21.019
18 1 3.8175 19.2125 18.5043
531 2 0.780947 20.4565 15.8417
364 2 2.94665 20.0548 19.5606
304 2 4.05631 19.8529 17.0786
303 2 2.9979 17.879 18.0424
220 2 0.584095 18.1472 17.1349
126 1 2.8899 16.444 20.976
584 2 2.15984 16.7215 10.7753
49 1 1.98334 19.5239 20.7238
473 2 0.329202 19.4165 12.0786
485 2 1.87811 21.4987 11.7326
457 2 0.524813 19.4164 20.0712
560 2 10.2802 4.57551 0.747221
412 2 6.30952 5.03442 6.93404
23 1 9.56433 1.20653 4.18573
275 2 8.41059 0.331022 7.29927
421 2 8.77507 4.17619 2.83778
246 2 7.50314 4.83366 0.728118
610 2 10.2333 3.46612 9.24893
33 1 8.81935 4.08711 1.21697
9 1 9.19545 1.08593 0.988824
365 2 5.67451 1.14077 1.32465
321 2 9.40391 1.19164 2.58431
404 2 8.66335 2.0086 5.24783
582 2 8.7392 2.59077 0.632136
635 2 7.95821 4.6999 8.95734
388 2 6.31175 1.12866 5.71829
15 1 6.77271 4.06638 8.1213
212 1 9.55015 4.89103 9.07083
355 2 6.77434 5.03094 4.40315
422 2 7.34441 2.72607 7.40907
299 2 10.3522 0.888395 8.86719
95 1 7.70528 1.49223 6.43764
38 1 8.2649 5.29751 3.88039
135 1 5.60386 4.89885 5.50032
20 1 9.73026 1.37909 17.7381
455 2 9.30216 3.55905 15.0786
204 1 10.7194 4.05584 14.5161
512 2 6.7327 3.50196 15.7018
192 1 8.22373 3.63444 16.2682
492 2 8.68796 2.53023 17.3548
348 2 8.33092 5.08219 16.9652
93 1 6.65466 5.34741 20.7255
257 2 11.0479 1.90402 18.5232
519 2 10.1988 0.671978 16.3624
325 2 7.04184 5.55839 19.1856
329 2 11.1125 1.22434 20.9554
605 2 11.0142 0.598563 13.7951
260 2 10.5415 5.56044 14.0547
387 2 10.9645 1.74798 11.1915
291 2 7.86263 8.97368 1.97245
146 1 8.85526 7.7235 1.94303
493 2 10.3244 8.12686 2.42362
509 2 8.30286 6.62593 2.96427
144 1 6.42523 9.69629 1.96371
461 2 9.19695 5.60106 5.15806
67 1 10.0532 10.6694 7.07489
367 2 9.06715 7.26216 0.428971
407 2 6.99078 9.64486 5.70186
271 2 6.27311 10.4646 3.35905
317 2 8.66148 10.0557 7.54726
196 1 7.63705 8.94408 6.99917
439 2 8.49661 7.62631 6.66187
154 1 9.67496 6.54874 6.37921
614 2 6.4888 8.71264 8.07003
232 2 10.1084 8.24375 9.84557
438 2 9.82276 5.80052 10.354
613 2 10.6922 10.6169 2.90088
467 2 9.94514 5.67054 7.70528
599 2 10.1204 10.5138 5.47514
119 1 10.0324 7.06988 13.9254
460 2 6.24862 7.86787 13.0502
130 1 6.23224 7.33337 11.5205
617 2 8.46819 7.224 14.32
290 2 8.07824 9.59282 13.4454
524 2 10.0786 7.49459 12.3704
338 2 6.33444 9.94587 17.9542
207 1 7.3358 8.35462 14.1193
319 2 7.81521 7.28913 11.1011
352 2 6.80106 8.87105 15.528
132 1 6.40433 8.61986 17.0682
528 2 10.1892 9.0057 19.1233
163 1 9.98827 10.5292 18.7632
58 1 10.3195 7.53087 19.7597
224 2 9.47166 6.49635 18.8715
109 1 8.09398 6.15729 18.1169
466 2 7.44962 7.54264 17.6245
312 2 9.3525 10.7443 17.292
53 1 9.43208 7.24656 10.919
379 2 10.942 7.93194 14.9109
621 2 6.97938 12.2727 5.13202
284 2 8.36277 14.6784 4.94528
598 2 5.80475 14.641 0.761211
500 2 7.10691 13.6167 2.89845
274 2 8.3173 15.2228 1.31947
14 1 7.86077 13.3147 4.27559
470 2 9.20894 12.476 3.99519
110 1 7.17375 14.1029 1.38167
213 1 10.4207 11.4727 4.21343
633 2 10.7103 13.7892 9.3187
107 1 9.8346 15.6858 1.2585
346 2 10.1858 12.2425 7.30759
113 1 9.25126 15.7044 5.82513
449 2 9.73142 14.8263 7.08627
89 1 10.667 13.7 7.72613
480 2 7.63296 12.9127 0.403013
44 1 6.26428 10.8498 4.92654
385 2 6.38277 10.7197 0.742392
223 2 5.86358 16.1753 10.6953
288 2 6.74046 12.2686 19.1708
545 2 6.61309 15.7627 19.0155
279 2 9.7896 14.8525 11.5309
468 2 10.0915 14.5403 14.0145
282 2 7.05989 11.9602 13.0388
92 1 9.61623 15.6153 12.9232
463 2 5.8628 13.678 11.4378
510 2 9.44473 11.3645 12.212
87 1 6.13602 11.5507 17.872
374 2 8.9166 11.5989 14.7998
340 2 8.9219 15.5762 17.7248
179 1 8.37706 11.1529 13.3529
396 2 9.35155 13.2268 16.9001
35 1 7.70357 11.9866 20.421
626 2 7.11014 11.9227 16.6488
208 1 10.1219 14.5322 17.4781
139 1 7.34067 15.9175 17.5981
141 1 8.6954 11.879 16.3442
522 2 6.65221 15.0141 16.4444
607 2 11.0231 13.989 18.6964
243 2 8.16832 16.1769 13.2466
123 1 5.78315 12.8668 12.8395
50 1 5.88749 16.0723 20.4202
587 2 8.92147 11.1713 19.7864
353 2 10.7434 20.241 7.28433
90 1 7.8465 19.8939 3.87671
577 2 10.1249 16.859 2.32552
297 2 7.20259 18.9568 4.97882
525 2 8.70675 18.9833 2.85937
380 2 5.76194 18.6323 9.90636
415 2 8.9138 20.951 4.48242
454 2 6.74871 20.6247 2.96025
143 1 10.1286 18.474 2.36923
262 2 5.71296 16.8352 5.53114
8 1 9.48927 18.3712 10.0129
273 2 10.5991 17.3671 9.32875
527 2 9.18163 19.6833 9.13763
188 1 9.54902 20.8936 8.13253
586 2 5.77194 19.7997 0.618582
209 1 6.93719 17.7869 6.03332
301 2 8.29576 16.9375 6.17342
550 2 6.48783 18.4702 7.41668
201 1 6.44305 21.0115 1.43016
513 2 8.11573 17.6562 10.3926
226 2 7.91082 21.3127 0.810534
508 2 10.4447 18.7942 0.828583
305 2 10.6464 16.1317 5.12305
641 2 6.51642 17.9481 12.4006
295 2 7.76321 18.2109 14.7631
252 2 6.39696 19.8957 16.1159
129 1 7.04372 17.2376 13.7195
443 2 10.325 18.805 11.3494
436 2 10.6831 16.87 20.6433
1 1 7.53771 18.769 16.2432
487 2 10.3635 19.0969 19.1146
636 2 9.09038 21.3995 18.6058
612 2 8.74976 19.3423 17.0785
149 1 6.44538 19.0248 20.2871
121 1 9.03576 19.7992 18.5902
608 2 7.81409 19.273 19.4914
413 2 7.11262 17.4346 17.073
639 2 10.6966 16.8236 12.8254
221 2 5.89791 16.3897 14.4624
131 1 6.56348 17.6126 10.8361
475 2 6.39196 17.539 20.8808
344 2 11.0518 1.77362 4.34808
136 1 13.7528 5.11181 4.25112
402 2 12.9554 3.72378 4.3249
389 2 14.8028 5.23803 5.43413
231 2 13.314 1.32592 3.37593
60 1 11.7906 4.00436 0.745369
142 1 15.1827 5.12325 6.97582
167 1 12.2548 2.49925 3.55761
363 2 11.8521 3.14978 2.13579
479 2 14.4529 5.30595 2.83264
183 1 14.7491 0.454353 7.09549
416 2 12.9437 5.12105 0.832436
625 2 14.7707 3.69836 9.99331
559 2 14.7355 1.78281 7.99618
406 2 12.5594 2.45503 9.20647
267 2 14.0806 4.17772 7.66117
173 1 14.001 2.99804 8.75628
391 2 14.6984 0.632639 5.48574
343 2 15.8608 2.64462 0.72242
103 1 11.0293 2.12323 9.62463
308 2 15.4683 5.28651 0.421217
128 1 14.3309 0.249124 3.94651
272 2 15.6387 0.244432 3.07596
465 2 14.0839 3.12946 14.8364
581 2 15.6786 0.568734 20.7686
526 2 15.1109 4.04162 12.5235
191 1 11.5401 1.65396 12.6704
65 1 15.3301 3.13823 13.8233
579 2 12.4758 1.37462 15.7511
238 2 13.0978 1.2489 12.5336
476 2 15.5006 4.84093 16.9716
447 2 15.4857 1.60239 13.3234
268 2 11.2764 3.07922 13.3714
540 2 12.4992 3.28387 20.3428
515 2 11.7778 3.85779 15.7219
77 1 15.4991 4.63196 11.088
69 1 13.0106 2.85346 15.9986
86 1 14.4612 4.34176 18.1007
180 1 12.0764 1.81785 19.7768
427 2 13.672 3.13153 17.4156
589 2 15.3847 4.00962 19.3551
264 2 13.3451 0.849327 19.5355
411 2 15.7395 0.776513 18.2702
555 2 13.4184 5.53827 18.3416
78 1 16.4736 4.30639 20.4929
172 1 14.4483 0.439905 12.8685
151 1 11.4399 9.23752 2.62705
430 2 12.4783 9.30628 1.43309
3 1 14.0185 9.06432 1.08276
433 2 12.7352 6.34478 4.41325
392 2 12.1957 8.83679 3.99375
241 2 14.2633 7.48137 1.36342
193 1 14.3007 5.87336 1.34322
315 2 14.8987 10.1496 1.88189
158 1 12.3375 7.72931 5.14431
108 1 11.2892 9.25897 9.44947
630 2 12.8124 8.77079 9.58067
83 1 14.2414 9.52816 9.55288
331 2 15.0485 6.59127 7.61351
592 2 13.5597 8.09927 6.11642
552 2 14.8532 9.21556 8.10774
7 1 14.8998 8.08137 6.98886
278 2 10.981 7.385 5.93572
464 2 11.1222 9.89784 7.98295
316 2 11.1906 10.3968 10.5699
483 2 15.2009 8.86871 10.6482
362 2 13.5888 7.90004 15.2427
165 1 12.9404 7.04984 18.512
112 1 12.1704 8.4067 15.8249
70 1 15.0602 7.8231 14.6454
489 2 15.8411 6.46622 15.0269
48 1 15.6446 7.6797 11.6259
570 2 15.246 6.22546 11.0521
491 2 14.9423 7.89052 13.0513
283 2 12.1507 7.69916 17.2603
244 2 12.1973 10.0149 15.6965
270 2 14.5121 10.4009 17.8714
171 1 15.1521 9.24793 18.7906
419 2 14.3029 7.90042 18.6452
378 2 14.9438 9.68129 20.3169
408 2 11.8924 7.20525 19.7143
322 2 15.9779 9.04601 15.1531
538 2 11.7045 10.7333 13.2105
296 2 11.7599 12.271 4.55465
631 2 12.9167 13.0163 2.41613
225 2 12.711 14.6763 4.316
57 1 12.2018 13.7101 1.15228
157 1 13.004 13.1251 4.03674
551 2 14.3866 12.6534 4.70101
148 1 13.8137 14.9596 10.2308
337 2 12.1739 14.0049 7.2346
351 2 15.6839 15.5669 1.33483
114 1 14.6749 12.591 9.7079
160 1 13.4294 15.0396 7.50661
300 2 13.9659 13.8834 8.90464
568 2 13.1645 14.9144 0.675986
361 2 14.9571 14.9915 6.94103
514 2 14.048 11.1321 9.73864
47 1 16.0037 12.6046 4.63094
405 2 10.8019 14.4298 1.50421
569 2 16.1563 12.4162 9.1675
637 2 13.0776 16.0351 8.87245
333 2 14.9691 16.0093 10.5609
100 1 12.2601 16.0877 4.92164
477 2 15.7249 14.5153 20.1013
255 2 13.9238 11.4584 14.2982
137 1 11.4066 14.1592 14.8524
17 1 12.3715 11.1748 14.6057
542 2 15.0985 13.7845 14.1713
199 1 14.1778 15.0953 14.1444
51 1 15.2565 12.2849 14.6784
488 2 12.645 14.6596 13.9537
478 2 11.7363 12.5914 15.0621
532 2 11.1311 14.8767 16.2696
471 2 14.4977 13.5646 10.9701
426 2 12.5193 13.1182 20.6744
588 2 14.0233 15.789 15.5958
590 2 13.375 12.7614 18.2355
46 1 12.0625 12.8305 19.163
254 2 15.1324 12.3761 16.2845
511 2 15.8946 12.3096 18.7817
153 1 14.6991 11.9958 17.7581
609 2 12.3512 14.9786 10.883
490 2 11.4227 12.759 11.5895
222 2 11.3036 11.4292 18.9513
80 1 15.1558 15.7832 20.9375
217 2 14.8397 16.1159 13.0995
211 1 11.0094 14.102 10.8492
55 1 10.9948 11.2573 11.8763
250 2 13.3209 20.8633 7.36828
360 2 15.9285 20.8049 7.58333
366 2 12.8393 17.2969 4.03558
117 1 12.5787 18.8727 4.1825
342 2 13.6554 19.9978 3.86358
345 2 12.3476 19.0589 5.75424
242 2 11.2554 19.0958 3.30761
156 1 12.2417 17.3736 9.33441
576 2 12.54 18.615 8.3791
16 1 12.2453 19.6861 7.21166
620 2 12.8721 16.1524 6.39941
197 1 13.1548 19.391 14.5733
557 2 14.0644 18.3256 15.3322
456 2 16.1579 16.7474 16.252
314 2 14.8052 20.6922 11.6632
249 2 12.3898 18.7627 13.295
234 2 15.9614 18.136 11.7931
276 2 15.07 17.1689 20.1302
462 2 14.0461 20.6293 14.0461
469 2 12.487 17.7133 10.8975
155 1 14.7339 21.3872 19.4502
159 1 14.2294 18.224 19.2381
395 2 11.9813 20.0692 15.4586
390 2 14.6809 19.78 19.2792
603 2 14.2342 17.5843 17.7607
277 2 12.738 18.2358 19.8214
195 1 11.5216 18.0525 12.1684
99 1 14.5939 17.1198 16.2712
10 1 15.7888 16.529 11.8556
26 1 11.2127 18.3489 20.2263
115 1 11.2925 21.5082 15.3507
84 1 16.0843 19.7168 11.4924
236 2 18.8848 3.73178 1.30338
326 2 16.6685 4.5089 7.0463
52 1 19.0324 3.78261 2.89964
30 1 18.4219 1.5727 4.97589
535 2 18.319 2.67749 3.80098
332 2 17.8681 0.282749 4.21919
358 2 20.5972 3.63721 3.29292
516 2 19.9307 1.14315 5.30032
28 1 20.8926 4.69353 6.78866
399 2 17.7343 2.19793 6.28109
74 1 18.4541 4.33349 10.0535
381 2 19.3844 4.09897 6.65388
561 2 19.7406 0.987314 9.65652
640 2 18.1136 3.4307 8.74771
105 1 17.9428 3.52451 7.16099
349 2 17.4162 0.602729 1.46876
330 2 18.5566 5.24213 3.36644
140 1 16.3606 1.15067 0.4054
263 2 21.3386 1.06081 1.03092
335 2 18.4296 1.30557 11.9258
81 1 17.3504 0.968923 18.2898
537 2 21.0035 1.51784 11.7457
210 1 19.4271 4.72348 15.9984
547 2 19.2277 3.26216 15.3899
85 1 19.0334 1.71849 15.7361
505 2 20.3132 5.43032 19.8058
615 2 17.6025 1.66778 19.7092
543 2 20.2831 4.64206 17.3535
596 2 20.57 1.23923 15.9376
369 2 16.4273 3.91823 14.6995
437 2 17.9897 4.38253 19.9928
4 1 16.4606 5.16485 15.7391
499 2 20.4886 2.95419 20.0654
585 2 17.9682 5.35116 16.2204
13 1 19.5056 4.19378 20.4592
520 2 18.0807 1.62547 17.037
75 1 19.6403 1.8505 11.008
506 2 18.331 0.879301 14.5478
564 2 19.483 3.4229 10.8482
61 1 21.1281 5.48851 18.4192
253 2 17.0897 4.51435 10.8522
549 2 20.2099 5.6166 14.9494
498 2 21.643 5.37491 12.783
334 2 19.3518 9.38015 0.57618
644 2 20.5947 6.14168 7.48111
285 2 19.7279 10.0499 3.14195
327 2 18.3517 9.64872 6.32546
111 1 18.9789 6.73322 3.7015
280 2 18.5772 7.80744 2.58183
120 1 18.7736 9.30387 2.06176
504 2 20.5976 6.73654 3.76969
328 2 18.4394 7.26925 5.10314
230 2 20.3087 8.03184 9.44427
572 2 18.3979 7.47921 7.69445
184 1 17.8669 8.13118 6.3198
601 2 20.8411 10.5964 9.75758
409 2 17.4233 10.1451 1.98225
91 1 19.6217 6.88442 8.55446
22 1 20.5667 9.21584 10.5322
417 2 19.0619 5.71155 9.51088
256 2 16.2705 8.19541 6.17761
632 2 21.3038 10.2799 7.23974
494 2 18.1684 9.2903 13.9119
147 1 17.2182 10.0789 14.949
96 1 20.844 6.41046 13.7299
203 1 18.5767 8.38431 12.6346
571 2 19.6499 7.24413 13.0384
624 2 19.305 9.2529 11.5019
495 2 17.2215 7.76884 12.0017
452 2 19.1756 8.53454 17.5091
45 1 20.2839 10.3654 19.9132
548 2 18.9503 10.5606 18.9818
293 2 17.8261 10.3672 16.4147
347 2 21.0341 9.26696 19.0118
134 1 20.7788 8.4529 17.6503
647 2 21.2465 6.95744 17.8107
12 1 18.1166 9.70914 17.857
474 2 21.5354 9.29971 16.5357
442 2 16.7201 9.18034 18.4426
481 2 18.1 14.5913 1.99743
604 2 16.214 12.0063 0.492323
19 1 20.1571 11.4506 3.81932
486 2 16.4976 14.0706 5.08012
54 1 19.5552 14.1282 2.46454
428 2 19.6156 12.5806 2.80751
302 2 20.1029 14.9012 3.77968
245 2 20.4688 14.4875 1.1749
627 2 19.4113 11.6894 5.22348
414 2 16.8591 11.6802 5.65523
377 2 18.131 13.7489 10.0252
205 1 17.5979 12.9821 8.70757
56 1 21.1948 15.5083 4.81807
106 1 17.2645 15.7301 1.25452
101 1 18.302 11.2392 6.30917
446 2 20.8562 15.316 8.59957
638 2 17.2818 14.113 7.6018
648 2 18.3718 11.8862 7.79827
240 2 21.3728 12.7906 8.15197
64 1 16.483 14.9115 6.44851
556 2 21.3593 14.6568 6.18047
383 2 16.2465 12.103 3.13872
200 1 16.1782 11.1431 1.8599
176 1 20.9121 14.7917 12.9357
459 2 21.088 13.3816 13.6471
368 2 19.7202 14.7567 11.8734
251 2 18.3097 15.8993 17.6993
539 2 21.3488 11.5388 20.2234
313 2 16.5643 11.4227 14.3459
565 2 20.5451 15.9872 13.9275
563 2 20.3363 15.1546 19.3886
124 1 18.747 15.218 19.1038
562 2 18.0312 13.7894 19.3074
169 1 18.4072 15.0292 10.9912
214 1 21.3337 15.6395 20.5565
310 2 17.1561 15.6486 11.813
292 2 18.187 16.0114 20.4319
170 1 16.6483 13.1922 19.8685
228 2 20.8005 17.0346 5.16959
521 2 20.6403 19.77 5.32424
216 1 18.4869 18.4862 2.21578
533 2 19.622 18.3631 3.33132
574 2 19.2234 18.9883 0.890537
94 1 19.971 18.3901 4.894
529 2 17.8041 17.0975 1.85066
544 2 17.389 19.5404 2.65088
423 2 21.1338 17.5149 9.83337
97 1 17.0881 21.0753 2.86401
382 2 18.5544 18.3506 5.64036
66 1 16.9559 19.9189 8.41316
122 1 17.9739 17.5964 6.91038
237 2 16.9628 18.4359 7.81029
628 2 16.613 19.901 9.98674
266 2 19.3028 17.3012 7.79597
161 1 19.804 20.7068 9.12214
645 2 18.4933 20.3907 8.26598
320 2 21.1854 20.5043 8.31149
11 1 20.042 16.6334 9.04578
616 2 17.2327 16.2994 6.37517
175 1 21.0304 21.3113 5.0358
233 2 19.6858 19.8243 10.4971
265 2 18.8363 16.2095 9.99013
472 2 21.3705 21.2702 3.46814
425 2 17.0235 20.4165 12.6209
376 2 20.8868 17.1836 20.7929
606 2 19.4634 20.4989 12.9639
536 2 19.4758 17.9913 12.6943
186 1 20.0412 19.3439 12.0096
372 2 18.5284 16.9941 15.1796
25 1 19.7276 17.3305 14.1596
534 2 20.627 18.4153 14.9272
37 1 20.4566 18.6821 20.3966
202 1 17.7013 16.9066 16.5668
341 2 19.4024 18.7179 19.2213
420 2 19.8513 19.7784 16.9594
82 1 21.145 19.2262 16.2018
541 2 17.7748 18.3574 17.2537
182 1 18.6791 19.4257 17.9927
507 2 17.8858 20.7207 18.4109
31 1 18.1661 21.4457 13.1007
ITEM: TIMESTEP
1
ITEM: NUMBER OF ATOMS
648
ITEM: BOX BOUNDS xy xz yz pp pp pp
-0.0160071 21.9081 -0.0628648
0.0808182 21.7015 0.560077
0.312262 21.0826 0.38745
ITEM: ATOMS id type x y z
29 1 2.96402 2.01647 3.31174
318 2 3.9101 1.37647 4.42534
432 2 1.84001 2.96065 3.96829
595 2 1.14523 4.69677 10.4124
431 2 3.8493 2.76902 2.1968
434 2 2.20858 0.911926 2.44407
43 1 4.64734 2.29061 0.877108
79 1 0.729166 4.12515 3.86549
62 1 3.98977 0.558143 8.37531
198 1 4.35147 2.97957 9.85118
373 2 2.92284 3.42797 9.2316
567 2 0.928847 0.370503 6.12525
27 1 1.68411 4.39956 8.9252
118 1 4.84782 1.79489 5.63791
359 2 4.21423 1.46147 7.06228
248 2 4.4113 1.40526 9.65155
530 2 0.526938 3.96494 7.89874
309 2 5.03858 3.39085 5.46494
2 1 1.21319 5.03727 0.958075
289 2 1.30523 4.9553 2.56677
357 2 0.339666 4.62372 5.36529
386 2 0.546889 3.60132 0.569548
444 2 5.50928 3.66642 8.98894
133 1 0.869305 0.128478 2.0469
181 1 1.47111 4.57388 11.9832
34 1 4.5374 4.78485 12.3038
523 2 2.95534 5.14034 12.2965
339 2 2.03928 1.50202 16.1861
618 2 4.18024 2.99865 15.769
41 1 1.13738 1.47522 12.4374
554 2 1.60587 3.00353 12.3425
194 1 0.762111 0.796883 15.531
138 1 5.28023 4.08331 15.3301
219 2 4.54836 3.5002 11.338
448 2 1.31183 4.98809 18.7038
371 2 5.06199 5.44817 16.1597
573 2 5.07849 4.45534 13.7753
36 1 3.64388 1.58937 16.3072
453 2 2.97392 5.39586 20.6372
6 1 3.37489 2.17276 19.2073
40 1 2.88273 5.13378 19.0448
298 2 1.80961 2.09296 19.6503
235 2 4.23769 2.01745 20.5434
356 2 3.55917 3.72576 18.7898
441 2 3.88911 1.42283 17.898
370 2 0.951071 1.06096 13.9651
450 2 4.40839 0.435651 15.4585
152 1 0.632606 2.57119 20.6585
546 2 5.91555 3.9573 21.0067
502 2 1.06898 8.21013 2.62321
424 2 3.8274 8.52286 4.59228
311 2 5.50124 8.25732 10.4286
72 1 3.43572 10.0762 4.81846
384 2 2.99434 7.72637 0.886752
174 1 4.43386 7.24832 1.41851
127 1 3.60299 6.93855 4.35466
418 2 4.07271 6.60762 2.85496
259 2 0.703493 6.57046 0.706698
553 2 2.26014 10.0618 5.89962
602 2 4.45219 5.97527 5.28353
634 2 2.006 6.81318 4.50977
102 1 0.644772 7.5435 4.02966
32 1 5.15039 8.73888 8.92818
629 2 4.09215 7.74116 8.23855
458 2 1.60731 8.22011 7.56591
168 1 2.56613 7.35858 8.52497
642 2 2.42979 7.8364 10.077
21 1 0.997028 9.27526 6.51048
580 2 2.26855 5.80216 8.39303
440 2 4.41462 10.1814 8.91883
190 1 1.41185 8.00204 1.04781
287 2 0.351946 8.55875 5.23511
611 2 5.34807 8.53515 1.72525
482 2 5.25731 6.21655 0.511384
591 2 3.08413 6.87784 15.4073
281 2 2.64663 7.88949 12.826
484 2 2.32366 9.26252 15.0242
185 1 2.25837 7.79125 14.3796
145 1 2.18333 8.6032 11.4704
336 2 2.86665 10.0486 11.5811
400 2 4.96256 7.93959 16.9545
445 2 3.41813 6.22096 18.0269
116 1 1.41321 10.2046 15.9453
63 1 4.09871 6.64197 16.6421
401 2 0.582423 8.85352 11.3988
229 2 1.66648 9.75653 21.0666
518 2 0.71445 7.34832 14.3015
566 2 5.44808 5.92954 11.6166
227 2 2.24162 10.8526 17.1563
503 2 1.28411 15.4189 4.02876
286 2 3.87112 15.4302 4.0216
164 1 1.80951 11.8507 2.92924
294 2 0.448449 11.6646 3.79863
397 2 3.3807 12.1363 10.3985
496 2 2.42299 13.3206 3.13198
206 1 2.57903 14.9261 3.19763
269 2 1.38099 11.6427 1.38752
600 2 2.48661 15.5381 1.72325
98 1 3.6491 14.1713 7.8628
398 2 2.03826 14.4188 7.92254
497 2 3.78581 12.5715 7.88353
42 1 0.266396 11.2477 8.49251
218 2 4.20283 14.9363 6.57173
410 2 4.45071 14.6465 9.17988
5 1 3.41046 11.4295 8.93437
76 1 0.431158 14.3009 7.71494
261 2 1.86459 11.0221 8.73078
125 1 4.29447 16.0733 5.42802
189 1 5.01226 14.8105 10.6766
594 2 4.72356 10.8469 5.32417
375 2 2.85351 10.7566 3.48076
583 2 1.10177 15.1485 12.4038
307 2 4.48118 11.926 12.7376
646 2 1.97741 13.7404 14.9619
501 2 1.95103 12.1926 12.7697
429 2 3.72915 14.9245 11.6667
258 2 4.29642 16.1336 20.2835
104 1 1.13779 12.6626 14.0803
166 1 3.15974 11.5944 11.9027
517 2 2.57618 11.7756 19.5688
623 2 1.61129 15.7106 20.3223
178 1 2.50966 15.8553 12.084
393 2 4.11282 14.922 15.8727
177 1 3.00558 11.9704 18.0355
187 1 2.60474 14.4829 16.2566
643 2 4.58389 11.8454 17.7627
239 2 1.86867 15.8242 16.7143
306 2 2.59464 13.3974 17.4312
622 2 0.903832 11.3982 15.0204
68 1 1.57945 11.3455 20.7479
24 1 5.57897 15.0015 15.2318
597 2 5.69873 13.8655 14.1043
451 2 1.22673 20.0204 1.27121
394 2 4.89547 20.5212 8.25032
354 2 1.97798 19.1453 10.2814
350 2 3.13119 17.138 5.86463
435 2 1.7172 17.3746 8.23066
71 1 1.42968 17.7075 9.76938
215 1 2.67147 18.0042 7.11451
619 2 1.95884 19.4124 6.86917
558 2 4.03561 18.2018 7.94589
162 1 1.23336 20.7478 7.43601
150 1 5.34943 19.001 8.41494
575 2 2.37455 21.4143 8.33274
73 1 1.82947 19.8973 11.7141
88 1 3.22079 18.2459 14.0363
323 2 2.68903 19.2676 12.9025
324 2 3.05691 16.8403 13.2399
39 1 1.97782 17.3997 16.885
403 2 4.4909 19.0531 14.6333
247 2 2.41888 17.9486 15.4163
59 1 4.86379 20.1742 15.7311
593 2 5.22377 19.0226 19.2371
578 2 2.56638 18.0382 21.019
18 1 3.8175 19.2125 18.5043
531 2 0.780947 20.4565 15.8417
364 2 2.94665 20.0548 19.5606
304 2 4.05631 19.8529 17.0786
303 2 2.9979 17.879 18.0424
220 2 0.584095 18.1472 17.1349
126 1 2.8899 16.444 20.976
584 2 2.15984 16.7215 10.7753
49 1 1.98334 19.5239 20.7238
473 2 0.329202 19.4165 12.0786
485 2 1.87811 21.4987 11.7326
457 2 0.524813 19.4164 20.0712
560 2 10.2802 4.57551 0.747221
412 2 6.30952 5.03442 6.93404
23 1 9.56433 1.20653 4.18573
275 2 8.41059 0.331022 7.29927
421 2 8.77507 4.17619 2.83778
246 2 7.50314 4.83366 0.728118
610 2 10.2333 3.46612 9.24893
33 1 8.81935 4.08711 1.21697
9 1 9.19545 1.08593 0.988824
365 2 5.67451 1.14077 1.32465
321 2 9.40391 1.19164 2.58431
404 2 8.66335 2.0086 5.24783
582 2 8.7392 2.59077 0.632136
635 2 7.95821 4.6999 8.95734
388 2 6.31175 1.12866 5.71829
15 1 6.77271 4.06638 8.1213
212 1 9.55015 4.89103 9.07083
355 2 6.77434 5.03094 4.40315
422 2 7.34441 2.72607 7.40907
299 2 10.3522 0.888395 8.86719
95 1 7.70528 1.49223 6.43764
38 1 8.2649 5.29751 3.88039
135 1 5.60386 4.89885 5.50032
20 1 9.73026 1.37909 17.7381
455 2 9.30216 3.55905 15.0786
204 1 10.7194 4.05584 14.5161
512 2 6.7327 3.50196 15.7018
192 1 8.22373 3.63444 16.2682
492 2 8.68796 2.53023 17.3548
348 2 8.33092 5.08219 16.9652
93 1 6.65466 5.34741 20.7255
257 2 11.0479 1.90402 18.5232
519 2 10.1988 0.671978 16.3624
325 2 7.04184 5.55839 19.1856
329 2 11.1125 1.22434 20.9554
605 2 11.0142 0.598563 13.7951
260 2 10.5415 5.56044 14.0547
387 2 10.9645 1.74798 11.1915
291 2 7.86263 8.97368 1.97245
146 1 8.85526 7.7235 1.94303
493 2 10.3244 8.12686 2.42362
509 2 8.30286 6.62593 2.96427
144 1 6.42523 9.69629 1.96371
461 2 9.19695 5.60106 5.15806
67 1 10.0532 10.6694 7.07489
367 2 9.06715 7.26216 0.428971
407 2 6.99078 9.64486 5.70186
271 2 6.27311 10.4646 3.35905
317 2 8.66148 10.0557 7.54726
196 1 7.63705 8.94408 6.99917
439 2 8.49661 7.62631 6.66187
154 1 9.67496 6.54874 6.37921
614 2 6.4888 8.71264 8.07003
232 2 10.1084 8.24375 9.84557
438 2 9.82276 5.80052 10.354
613 2 10.6922 10.6169 2.90088
467 2 9.94514 5.67054 7.70528
599 2 10.1204 10.5138 5.47514
119 1 10.0324 7.06988 13.9254
460 2 6.24862 7.86787 13.0502
130 1 6.23224 7.33337 11.5205
617 2 8.46819 7.224 14.32
290 2 8.07824 9.59282 13.4454
524 2 10.0786 7.49459 12.3704
338 2 6.33444 9.94587 17.9542
207 1 7.3358 8.35462 14.1193
319 2 7.81521 7.28913 11.1011
352 2 6.80106 8.87105 15.528
132 1 6.40433 8.61986 17.0682
528 2 10.1892 9.0057 19.1233
163 1 9.98827 10.5292 18.7632
58 1 10.3195 7.53087 19.7597
224 2 9.47166 6.49635 18.8715
109 1 8.09398 6.15729 18.1169
466 2 7.44962 7.54264 17.6245
312 2 9.3525 10.7443 17.292
53 1 9.43208 7.24656 10.919
379 2 10.942 7.93194 14.9109
621 2 6.97938 12.2727 5.13202
284 2 8.36277 14.6784 4.94528
598 2 5.80475 14.641 0.761211
500 2 7.10691 13.6167 2.89845
274 2 8.3173 15.2228 1.31947
14 1 7.86077 13.3147 4.27559
470 2 9.20894 12.476 3.99519
110 1 7.17375 14.1029 1.38167
213 1 10.4207 11.4727 4.21343
633 2 10.7103 13.7892 9.3187
107 1 9.8346 15.6858 1.2585
346 2 10.1858 12.2425 7.30759
113 1 9.25126 15.7044 5.82513
449 2 9.73142 14.8263 7.08627
89 1 10.667 13.7 7.72613
480 2 7.63296 12.9127 0.403013
44 1 6.26428 10.8498 4.92654
385 2 6.38277 10.7197 0.742392
223 2 5.86358 16.1753 10.6953
288 2 6.74046 12.2686 19.1708
545 2 6.61309 15.7627 19.0155
279 2 9.7896 14.8525 11.5309
468 2 10.0915 14.5403 14.0145
282 2 7.05989 11.9602 13.0388
92 1 9.61623 15.6153 12.9232
463 2 5.8628 13.678 11.4378
510 2 9.44473 11.3645 12.212
87 1 6.13602 11.5507 17.872
374 2 8.9166 11.5989 14.7998
340 2 8.9219 15.5762 17.7248
179 1 8.37706 11.1529 13.3529
396 2 9.35155 13.2268 16.9001
35 1 7.70357 11.9866 20.421
626 2 7.11014 11.9227 16.6488
208 1 10.1219 14.5322 17.4781
139 1 7.34067 15.9175 17.5981
141 1 8.6954 11.879 16.3442
522 2 6.65221 15.0141 16.4444
607 2 11.0231 13.989 18.6964
243 2 8.16832 16.1769 13.2466
123 1 5.78315 12.8668 12.8395
50 1 5.88749 16.0723 20.4202
587 2 8.92147 11.1713 19.7864
353 2 10.7434 20.241 7.28433
90 1 7.8465 19.8939 3.87671
577 2 10.1249 16.859 2.32552
297 2 7.20259 18.9568 4.97882
525 2 8.70675 18.9833 2.85937
380 2 5.76194 18.6323 9.90636
415 2 8.9138 20.951 4.48242
454 2 6.74871 20.6247 2.96025
143 1 10.1286 18.474 2.36923
262 2 5.71296 16.8352 5.53114
8 1 9.48927 18.3712 10.0129
273 2 10.5991 17.3671 9.32875
527 2 9.18163 19.6833 9.13763
188 1 9.54902 20.8936 8.13253
586 2 5.77194 19.7997 0.618582
209 1 6.93719 17.7869 6.03332
301 2 8.29576 16.9375 6.17342
550 2 6.48783 18.4702 7.41668
201 1 6.44305 21.0115 1.43016
513 2 8.11573 17.6562 10.3926
226 2 7.91082 21.3127 0.810534
508 2 10.4447 18.7942 0.828583
305 2 10.6464 16.1317 5.12305
641 2 6.51642 17.9481 12.4006
295 2 7.76321 18.2109 14.7631
252 2 6.39696 19.8957 16.1159
129 1 7.04372 17.2376 13.7195
443 2 10.325 18.805 11.3494
436 2 10.6831 16.87 20.6433
1 1 7.53771 18.769 16.2432
487 2 10.3635 19.0969 19.1146
636 2 9.09038 21.3995 18.6058
612 2 8.74976 19.3423 17.0785
149 1 6.44538 19.0248 20.2871
121 1 9.03576 19.7992 18.5902
608 2 7.81409 19.273 19.4914
413 2 7.11262 17.4346 17.073
639 2 10.6966 16.8236 12.8254
221 2 5.89791 16.3897 14.4624
131 1 6.56348 17.6126 10.8361
475 2 6.39196 17.539 20.8808
344 2 11.0518 1.77362 4.34808
136 1 13.7528 5.11181 4.25112
402 2 12.9554 3.72378 4.3249
389 2 14.8028 5.23803 5.43413
231 2 13.314 1.32592 3.37593
60 1 11.7906 4.00436 0.745369
142 1 15.1827 5.12325 6.97582
167 1 12.2548 2.49925 3.55761
363 2 11.8521 3.14978 2.13579
479 2 14.4529 5.30595 2.83264
183 1 14.7491 0.454353 7.09549
416 2 12.9437 5.12105 0.832436
625 2 14.7707 3.69836 9.99331
559 2 14.7355 1.78281 7.99618
406 2 12.5594 2.45503 9.20647
267 2 14.0806 4.17772 7.66117
173 1 14.001 2.99804 8.75628
391 2 14.6984 0.632639 5.48574
343 2 15.8608 2.64462 0.72242
103 1 11.0293 2.12323 9.62463
308 2 15.4683 5.28651 0.421217
128 1 14.3309 0.249124 3.94651
272 2 15.6387 0.244432 3.07596